 &FCI NORB=   5,NELEC= 4,MS2=0,
  ORBSYM=1,1,1,1,1,
  ISYM=1,
 &END
 2.283825669881972    1    1    1    1
 -0.2585893859958211    1    1    2    1
 0.5800308454033329    1    1    2    2
 0.5700964080814951    1    1    3    3
 0.5700964080814951    1    1    4    4
 0.5700964080814951    1    1    5    5
 -0.2585893859958212    2    1    1    1
 0.04703140844525519    2    1    2    1
 -0.01514888958909626    2    1    2    2
 -0.008474583151510114    2    1    3    3
 -0.008474583151510114    2    1    4    4
 -0.008474583151510114    2    1    5    5
 0.5800308454033328    2    2    1    1
 -0.01514888958909627    2    2    2    1
 0.405613336380918    2    2    2    2
 0.4104967204299357    2    2    3    3
 0.4104967204299357    2    2    4    4
 0.4104967204299357    2    2    5    5
 0.01590780213974818    3    1    3    1
 0.02048676461609134    3    1    3    2
 0.02048676461609134    3    2    3    1
 0.0868613985910089    3    2    3    2
 0.5700964080814951    3    3    1    1
 -0.008474583151510114    3    3    2    1
 0.4104967204299357    3    3    2    2
 0.4501165636474175    3    3    3    3
 0.4016007486241529    3    3    4    4
 0.401600748624153    3    3    5    5
 0.01590780213974818    4    1    4    1
 0.02048676461609134    4    1    4    2
 0.02048676461609134    4    2    4    1
 0.0868613985910089    4    2    4    2
 0.02425790751163292    4    3    4    3
 0.5700964080814951    4    4    1    1
 -0.008474583151510114    4    4    2    1
 0.4104967204299357    4    4    2    2
 0.4016007486241529    4    4    3    3
 0.4501165636474175    4    4    4    4
 0.401600748624153    4    4    5    5
 0.01590780213974818    5    1    5    1
 0.02048676461609134    5    1    5    2
 0.02048676461609134    5    2    5    1
 0.0868613985910089    5    2    5    2
 0.02425790751163292    5    3    5    3
 0.02425790751163292    5    4    5    4
 0.5700964080814951    5    5    1    1
 -0.008474583151510114    5    5    2    1
 0.4104967204299357    5    5    2    2
 0.401600748624153    5    5    3    3
 0.401600748624153    5    5    4    4
 0.4501165636474175    5    5    5    5
 -7.938690478258379    1    1  0  0
 0.2737382755849174    2    1  0  0
 -1.770739869082271    2    2  0  0
 -1.638719982571136    3    3  0  0
 -1.638719982571136    4    4  0  0
 -1.638719982571136    5    5  0  0
 8e-200  0  0  0  0
